<?xml version="1.0" encoding="UTF-8"?>

<!-- generated on 2025-06-26 16:57:39 by Eclipse SUMO sumo Version 1.13.0
<configuration xmlns:xsi="http://www.w3.org/2001/XMLSchema-instance" xsi:noNamespaceSchemaLocation="http://sumo.dlr.de/xsd/sumoConfiguration.xsd">

    <input>
        <net-file value="data/simple.net.xml"/>
        <route-files value="data/route.rou.xml"/>
    </input>

    <output>
        <fcd-output value="data/fcd_output.xml"/>
    </output>

    <time>
        <begin value="0"/>
        <end value="100"/>
    </time>

    <traci_server>
        <remote-port value="49712"/>
    </traci_server>

</configuration>
-->

<fcd-export xmlns:xsi="http://www.w3.org/2001/XMLSchema-instance" xsi:noNamespaceSchemaLocation="http://sumo.dlr.de/xsd/fcd_file.xsd">
    <timestep time="0.00">
        <vehicle id="flow0.0" x="5.10" y="-1.60" angle="90.00" type="car" speed="0.00" pos="5.10" lane="edge0_0" slope="0.00"/>
    </timestep>
    <timestep time="1.00">
        <vehicle id="flow0.0" x="5.65" y="-1.60" angle="90.00" type="car" speed="0.55" pos="5.65" lane="edge0_0" slope="0.00"/>
    </timestep>
    <timestep time="2.00">
        <vehicle id="flow0.0" x="6.85" y="-1.60" angle="90.00" type="car" speed="1.20" pos="6.85" lane="edge0_0" slope="0.00"/>
    </timestep>
    <timestep time="3.00">
        <vehicle id="flow0.0" x="9.03" y="-1.60" angle="90.00" type="car" speed="2.18" pos="9.03" lane="edge0_0" slope="0.00"/>
    </timestep>
    <timestep time="4.00">
        <vehicle id="flow0.0" x="11.96" y="-1.60" angle="90.00" type="car" speed="2.93" pos="11.96" lane="edge0_0" slope="0.00"/>
    </timestep>
    <timestep time="5.00">
        <vehicle id="flow0.0" x="15.59" y="-1.60" angle="90.00" type="car" speed="3.63" pos="15.59" lane="edge0_0" slope="0.00"/>
        <vehicle id="flow0.1" x="5.10" y="-1.60" angle="90.00" type="car" speed="0.00" pos="5.10" lane="edge0_0" slope="0.00"/>
    </timestep>
    <timestep time="6.00">
        <vehicle id="flow0.0" x="20.21" y="-1.60" angle="90.00" type="car" speed="4.61" pos="20.21" lane="edge0_0" slope="0.00"/>
        <vehicle id="flow0.1" x="5.73" y="-1.60" angle="90.00" type="car" speed="0.63" pos="5.73" lane="edge0_0" slope="0.00"/>
    </timestep>
    <timestep time="7.00">
        <vehicle id="flow0.0" x="25.70" y="-1.60" angle="90.00" type="car" speed="5.49" pos="25.70" lane="edge0_0" slope="0.00"/>
        <vehicle id="flow0.1" x="7.08" y="-1.60" angle="90.00" type="car" speed="1.36" pos="7.08" lane="edge0_0" slope="0.00"/>
    </timestep>
    <timestep time="8.00">
        <vehicle id="flow0.0" x="31.81" y="-1.60" angle="90.00" type="car" speed="6.12" pos="31.81" lane="edge0_0" slope="0.00"/>
        <vehicle id="flow0.1" x="9.44" y="-1.60" angle="90.00" type="car" speed="2.35" pos="9.44" lane="edge0_0" slope="0.00"/>
    </timestep>
    <timestep time="9.00">
        <vehicle id="flow0.0" x="38.59" y="-1.60" angle="90.00" type="car" speed="6.78" pos="38.59" lane="edge0_0" slope="0.00"/>
        <vehicle id="flow0.1" x="12.56" y="-1.60" angle="90.00" type="car" speed="3.12" pos="12.56" lane="edge0_0" slope="0.00"/>
    </timestep>
    <timestep time="10.00">
        <vehicle id="flow0.0" x="46.15" y="-1.60" angle="90.00" type="car" speed="7.55" pos="46.15" lane="edge0_0" slope="0.00"/>
        <vehicle id="flow0.1" x="16.39" y="-1.60" angle="90.00" type="car" speed="3.84" pos="16.39" lane="edge0_0" slope="0.00"/>
        <vehicle id="flow0.2" x="5.10" y="-1.60" angle="90.00" type="car" speed="0.00" pos="5.10" lane="edge0_0" slope="0.00"/>
    </timestep>
    <timestep time="11.00">
        <vehicle id="flow0.0" x="54.57" y="-1.60" angle="90.00" type="car" speed="8.42" pos="54.57" lane="edge0_0" slope="0.00"/>
        <vehicle id="flow0.1" x="21.20" y="-1.60" angle="90.00" type="car" speed="4.81" pos="21.20" lane="edge0_0" slope="0.00"/>
        <vehicle id="flow0.2" x="5.66" y="-1.60" angle="90.00" type="car" speed="0.56" pos="5.66" lane="edge0_0" slope="0.00"/>
    </timestep>
    <timestep time="12.00">
        <vehicle id="flow0.0" x="63.83" y="-1.60" angle="90.00" type="car" speed="9.26" pos="63.83" lane="edge0_0" slope="0.00"/>
        <vehicle id="flow0.1" x="26.66" y="-1.60" angle="90.00" type="car" speed="5.46" pos="26.66" lane="edge0_0" slope="0.00"/>
        <vehicle id="flow0.2" x="7.20" y="-1.60" angle="90.00" type="car" speed="1.54" pos="7.20" lane="edge0_0" slope="0.00"/>
    </timestep>
    <timestep time="13.00">
        <vehicle id="flow0.0" x="73.83" y="-1.60" angle="90.00" type="car" speed="10.00" pos="73.83" lane="edge0_0" slope="0.00"/>
        <vehicle id="flow0.1" x="32.97" y="-1.60" angle="90.00" type="car" speed="6.31" pos="32.97" lane="edge0_0" slope="0.00"/>
        <vehicle id="flow0.2" x="9.42" y="-1.60" angle="90.00" type="car" speed="2.22" pos="9.42" lane="edge0_0" slope="0.00"/>
    </timestep>
    <timestep time="14.00">
        <vehicle id="flow0.0" x="84.37" y="-1.60" angle="90.00" type="car" speed="10.53" pos="84.37" lane="edge0_0" slope="0.00"/>
        <vehicle id="flow0.1" x="39.87" y="-1.60" angle="90.00" type="car" speed="6.90" pos="39.87" lane="edge0_0" slope="0.00"/>
        <vehicle id="flow0.2" x="12.20" y="-1.60" angle="90.00" type="car" speed="2.78" pos="12.20" lane="edge0_0" slope="0.00"/>
    </timestep>
    <timestep time="15.00">
        <vehicle id="flow0.0" x="95.70" y="-1.60" angle="90.00" type="car" speed="11.34" pos="95.70" lane="edge0_0" slope="0.00"/>
        <vehicle id="flow0.1" x="47.50" y="-1.60" angle="90.00" type="car" speed="7.63" pos="47.50" lane="edge0_0" slope="0.00"/>
        <vehicle id="flow0.2" x="15.86" y="-1.60" angle="90.00" type="car" speed="3.66" pos="15.86" lane="edge0_0" slope="0.00"/>
        <vehicle id="flow0.3" x="5.10" y="-1.60" angle="90.00" type="car" speed="0.00" pos="5.10" lane="edge0_0" slope="0.00"/>
    </timestep>
    <timestep time="16.00">
        <vehicle id="flow0.0" x="108.03" y="-1.60" angle="90.00" type="car" speed="12.32" pos="108.03" lane="edge0_0" slope="0.00"/>
        <vehicle id="flow0.1" x="55.98" y="-1.60" angle="90.00" type="car" speed="8.48" pos="55.98" lane="edge0_0" slope="0.00"/>
        <vehicle id="flow0.2" x="20.14" y="-1.60" angle="90.00" type="car" speed="4.28" pos="20.14" lane="edge0_0" slope="0.00"/>
        <vehicle id="flow0.3" x="6.02" y="-1.60" angle="90.00" type="car" speed="0.92" pos="6.02" lane="edge0_0" slope="0.00"/>
    </timestep>
    <timestep time="17.00">
        <vehicle id="flow0.0" x="120.87" y="-1.60" angle="90.00" type="car" speed="12.84" pos="120.87" lane="edge0_0" slope="0.00"/>
        <vehicle id="flow0.1" x="65.44" y="-1.60" angle="90.00" type="car" speed="9.46" pos="65.44" lane="edge0_0" slope="0.00"/>
        <vehicle id="flow0.2" x="25.08" y="-1.60" angle="90.00" type="car" speed="4.94" pos="25.08" lane="edge0_0" slope="0.00"/>
        <vehicle id="flow0.3" x="7.78" y="-1.60" angle="90.00" type="car" speed="1.75" pos="7.78" lane="edge0_0" slope="0.00"/>
    </timestep>
    <timestep time="18.00">
        <vehicle id="flow0.0" x="134.64" y="-1.60" angle="90.00" type="car" speed="13.78" pos="134.64" lane="edge0_0" slope="0.00"/>
        <vehicle id="flow0.1" x="75.84" y="-1.60" angle="90.00" type="car" speed="10.40" pos="75.84" lane="edge0_0" slope="0.00"/>
        <vehicle id="flow0.2" x="30.81" y="-1.60" angle="90.00" type="car" speed="5.73" pos="30.81" lane="edge0_0" slope="0.00"/>
        <vehicle id="flow0.3" x="10.05" y="-1.60" angle="90.00" type="car" speed="2.27" pos="10.05" lane="edge0_0" slope="0.00"/>
    </timestep>
    <timestep time="19.00">
        <vehicle id="flow0.0" x="148.41" y="-1.60" angle="90.00" type="car" speed="13.77" pos="148.41" lane="edge0_0" slope="0.00"/>
        <vehicle id="flow0.1" x="87.12" y="-1.60" angle="90.00" type="car" speed="11.29" pos="87.12" lane="edge0_0" slope="0.00"/>
        <vehicle id="flow0.2" x="37.45" y="-1.60" angle="90.00" type="car" speed="6.65" pos="37.45" lane="edge0_0" slope="0.00"/>
        <vehicle id="flow0.3" x="13.03" y="-1.60" angle="90.00" type="car" speed="2.99" pos="13.03" lane="edge0_0" slope="0.00"/>
        <vehicle id="flow0.4" x="5.10" y="-1.60" angle="90.00" type="car" speed="0.00" pos="5.10" lane="edge0_0" slope="0.00"/>
    </timestep>
    <timestep time="20.00">
        <vehicle id="flow0.0" x="162.19" y="-1.60" angle="90.00" type="car" speed="13.78" pos="162.19" lane="edge0_0" slope="0.00"/>
        <vehicle id="flow0.1" x="99.00" y="-1.60" angle="90.00" type="car" speed="11.88" pos="99.00" lane="edge0_0" slope="0.00"/>
        <vehicle id="flow0.2" x="45.05" y="-1.60" angle="90.00" type="car" speed="7.60" pos="45.05" lane="edge0_0" slope="0.00"/>
        <vehicle id="flow0.3" x="16.69" y="-1.60" angle="90.00" type="car" speed="3.65" pos="16.69" lane="edge0_0" slope="0.00"/>
        <vehicle id="flow0.4" x="5.38" y="-1.60" angle="90.00" type="car" speed="0.28" pos="5.38" lane="edge0_0" slope="0.00"/>
    </timestep>
    <timestep time="21.00">
        <vehicle id="flow0.0" x="175.79" y="-1.60" angle="90.00" type="car" speed="13.60" pos="175.79" lane="edge0_0" slope="0.00"/>
        <vehicle id="flow0.1" x="111.54" y="-1.60" angle="90.00" type="car" speed="12.54" pos="111.54" lane="edge0_0" slope="0.00"/>
        <vehicle id="flow0.2" x="53.19" y="-1.60" angle="90.00" type="car" speed="8.13" pos="53.19" lane="edge0_0" slope="0.00"/>
        <vehicle id="flow0.3" x="20.86" y="-1.60" angle="90.00" type="car" speed="4.17" pos="20.86" lane="edge0_0" slope="0.00"/>
        <vehicle id="flow0.4" x="6.50" y="-1.60" angle="90.00" type="car" speed="1.12" pos="6.50" lane="edge0_0" slope="0.00"/>
    </timestep>
    <timestep time="22.00">
        <vehicle id="flow0.0" x="189.45" y="-1.60" angle="90.00" type="car" speed="13.65" pos="189.45" lane="edge0_0" slope="0.00"/>
        <vehicle id="flow0.1" x="124.29" y="-1.60" angle="90.00" type="car" speed="12.75" pos="124.29" lane="edge0_0" slope="0.00"/>
        <vehicle id="flow0.2" x="62.24" y="-1.60" angle="90.00" type="car" speed="9.05" pos="62.24" lane="edge0_0" slope="0.00"/>
        <vehicle id="flow0.3" x="25.56" y="-1.60" angle="90.00" type="car" speed="4.70" pos="25.56" lane="edge0_0" slope="0.00"/>
        <vehicle id="flow0.4" x="8.54" y="-1.60" angle="90.00" type="car" speed="2.03" pos="8.54" lane="edge0_0" slope="0.00"/>
    </timestep>
    <timestep time="23.00">
        <vehicle id="flow0.0" x="203.03" y="-1.60" angle="90.00" type="car" speed="13.58" pos="203.03" lane="edge0_0" slope="0.00"/>
        <vehicle id="flow0.1" x="137.26" y="-1.60" angle="90.00" type="car" speed="12.97" pos="137.26" lane="edge0_0" slope="0.00"/>
        <vehicle id="flow0.2" x="72.27" y="-1.60" angle="90.00" type="car" speed="10.04" pos="72.27" lane="edge0_0" slope="0.00"/>
        <vehicle id="flow0.3" x="31.11" y="-1.60" angle="90.00" type="car" speed="5.56" pos="31.11" lane="edge0_0" slope="0.00"/>
        <vehicle id="flow0.4" x="11.30" y="-1.60" angle="90.00" type="car" speed="2.76" pos="11.30" lane="edge0_0" slope="0.00"/>
    </timestep>
    <timestep time="24.00">
        <vehicle id="flow0.0" x="216.46" y="-1.60" angle="90.00" type="car" speed="13.44" pos="216.46" lane="edge0_0" slope="0.00"/>
        <vehicle id="flow0.1" x="150.27" y="-1.60" angle="90.00" type="car" speed="13.01" pos="150.27" lane="edge0_0" slope="0.00"/>
        <vehicle id="flow0.2" x="83.22" y="-1.60" angle="90.00" type="car" speed="10.95" pos="83.22" lane="edge0_0" slope="0.00"/>
        <vehicle id="flow0.3" x="37.17" y="-1.60" angle="90.00" type="car" speed="6.06" pos="37.17" lane="edge0_0" slope="0.00"/>
        <vehicle id="flow0.4" x="14.90" y="-1.60" angle="90.00" type="car" speed="3.60" pos="14.90" lane="edge0_0" slope="0.00"/>
        <vehicle id="flow0.5" x="5.10" y="-1.60" angle="90.00" type="car" speed="0.00" pos="5.10" lane="edge0_0" slope="0.00"/>
    </timestep>
    <timestep time="25.00">
        <vehicle id="flow0.0" x="230.19" y="-1.60" angle="90.00" type="car" speed="13.73" pos="230.19" lane="edge0_0" slope="0.00"/>
        <vehicle id="flow0.1" x="163.27" y="-1.60" angle="90.00" type="car" speed="13.00" pos="163.27" lane="edge0_0" slope="0.00"/>
        <vehicle id="flow0.2" x="94.88" y="-1.60" angle="90.00" type="car" speed="11.66" pos="94.88" lane="edge0_0" slope="0.00"/>
        <vehicle id="flow0.3" x="44.13" y="-1.60" angle="90.00" type="car" speed="6.96" pos="44.13" lane="edge0_0" slope="0.00"/>
        <vehicle id="flow0.4" x="19.41" y="-1.60" angle="90.00" type="car" speed="4.51" pos="19.41" lane="edge0_0" slope="0.00"/>
        <vehicle id="flow0.5" x="6.08" y="-1.60" angle="90.00" type="car" speed="0.98" pos="6.08" lane="edge0_0" slope="0.00"/>
    </timestep>
    <timestep time="26.00">
        <vehicle id="flow0.0" x="244.05" y="-1.60" angle="90.00" type="car" speed="13.86" pos="244.05" lane="edge0_0" slope="0.00"/>
        <vehicle id="flow0.1" x="175.95" y="-1.60" angle="90.00" type="car" speed="12.68" pos="175.95" lane="edge0_0" slope="0.00"/>
        <vehicle id="flow0.2" x="107.37" y="-1.60" angle="90.00" type="car" speed="12.49" pos="107.37" lane="edge0_0" slope="0.00"/>
        <vehicle id="flow0.3" x="51.94" y="-1.60" angle="90.00" type="car" speed="7.81" pos="51.94" lane="edge0_0" slope="0.00"/>
        <vehicle id="flow0.4" x="24.82" y="-1.60" angle="90.00" type="car" speed="5.41" pos="24.82" lane="edge0_0" slope="0.00"/>
        <vehicle id="flow0.5" x="7.71" y="-1.60" angle="90.00" type="car" speed="1.64" pos="7.71" lane="edge0_0" slope="0.00"/>
    </timestep>
    <timestep time="27.00">
        <vehicle id="flow0.0" x="257.74" y="-1.60" angle="90.00" type="car" speed="13.69" pos="257.74" lane="edge0_0" slope="0.00"/>
        <vehicle id="flow0.1" x="188.68" y="-1.60" angle="90.00" type="car" speed="12.73" pos="188.68" lane="edge0_0" slope="0.00"/>
        <vehicle id="flow0.2" x="120.66" y="-1.60" angle="90.00" type="car" speed="13.29" pos="120.66" lane="edge0_0" slope="0.00"/>
        <vehicle id="flow0.3" x="60.49" y="-1.60" angle="90.00" type="car" speed="8.55" pos="60.49" lane="edge0_0" slope="0.00"/>
        <vehicle id="flow0.4" x="30.81" y="-1.60" angle="90.00" type="car" speed="5.99" pos="30.81" lane="edge0_0" slope="0.00"/>
        <vehicle id="flow0.5" x="10.06" y="-1.60" angle="90.00" type="car" speed="2.34" pos="10.06" lane="edge0_0" slope="0.00"/>
    </timestep>
    <timestep time="28.00">
        <vehicle id="flow0.0" x="271.43" y="-1.60" angle="90.00" type="car" speed="13.69" pos="271.43" lane="edge0_0" slope="0.00"/>
        <vehicle id="flow0.1" x="201.54" y="-1.60" angle="90.00" type="car" speed="12.86" pos="201.54" lane="edge0_0" slope="0.00"/>
        <vehicle id="flow0.2" x="134.07" y="-1.60" angle="90.00" type="car" speed="13.41" pos="134.07" lane="edge0_0" slope="0.00"/>
        <vehicle id="flow0.3" x="70.04" y="-1.60" angle="90.00" type="car" speed="9.54" pos="70.04" lane="edge0_0" slope="0.00"/>
        <vehicle id="flow0.4" x="37.65" y="-1.60" angle="90.00" type="car" speed="6.84" pos="37.65" lane="edge0_0" slope="0.00"/>
        <vehicle id="flow0.5" x="13.35" y="-1.60" angle="90.00" type="car" speed="3.29" pos="13.35" lane="edge0_0" slope="0.00"/>
        <vehicle id="flow0.6" x="5.10" y="-1.60" angle="90.00" type="car" speed="0.00" pos="5.10" lane="edge0_0" slope="0.00"/>
    </timestep>
    <timestep time="29.00">
        <vehicle id="flow0.0" x="284.90" y="-1.60" angle="90.00" type="car" speed="13.46" pos="284.90" lane="edge0_0" slope="0.00"/>
        <vehicle id="flow0.1" x="214.27" y="-1.60" angle="90.00" type="car" speed="12.73" pos="214.27" lane="edge0_0" slope="0.00"/>
        <vehicle id="flow0.2" x="147.51" y="-1.60" angle="90.00" type="car" speed="13.44" pos="147.51" lane="edge0_0" slope="0.00"/>
        <vehicle id="flow0.3" x="80.33" y="-1.60" angle="90.00" type="car" speed="10.30" pos="80.33" lane="edge0_0" slope="0.00"/>
        <vehicle id="flow0.4" x="45.28" y="-1.60" angle="90.00" type="car" speed="7.63" pos="45.28" lane="edge0_0" slope="0.00"/>
        <vehicle id="flow0.5" x="17.29" y="-1.60" angle="90.00" type="car" speed="3.94" pos="17.29" lane="edge0_0" slope="0.00"/>
        <vehicle id="flow0.6" x="5.68" y="-1.60" angle="90.00" type="car" speed="0.58" pos="5.68" lane="edge0_0" slope="0.00"/>
    </timestep>
    <timestep time="30.00">
        <vehicle id="flow0.0" x="298.36" y="-1.60" angle="90.00" type="car" speed="13.46" pos="298.36" lane="edge0_0" slope="0.00"/>
        <vehicle id="flow0.1" x="227.03" y="-1.60" angle="90.00" type="car" speed="12.76" pos="227.03" lane="edge0_0" slope="0.00"/>
        <vehicle id="flow0.2" x="160.92" y="-1.60" angle="90.00" type="car" speed="13.41" pos="160.92" lane="edge0_0" slope="0.00"/>
        <vehicle id="flow0.3" x="91.48" y="-1.60" angle="90.00" type="car" speed="11.15" pos="91.48" lane="edge0_0" slope="0.00"/>
        <vehicle id="flow0.4" x="53.70" y="-1.60" angle="90.00" type="car" speed="8.42" pos="53.70" lane="edge0_0" slope="0.00"/>
        <vehicle id="flow0.5" x="22.05" y="-1.60" angle="90.00" type="car" speed="4.77" pos="22.05" lane="edge0_0" slope="0.00"/>
        <vehicle id="flow0.6" x="6.91" y="-1.60" angle="90.00" type="car" speed="1.23" pos="6.91" lane="edge0_0" slope="0.00"/>
    </timestep>
    <timestep time="31.00">
        <vehicle id="flow0.0" x="312.21" y="-1.60" angle="90.00" type="car" speed="13.85" pos="312.21" lane="edge0_0" slope="0.00"/>
        <vehicle id="flow0.1" x="239.84" y="-1.60" angle="90.00" type="car" speed="12.81" pos="239.84" lane="edge0_0" slope="0.00"/>
        <vehicle id="flow0.2" x="174.49" y="-1.60" angle="90.00" type="car" speed="13.57" pos="174.49" lane="edge0_0" slope="0.00"/>
        <vehicle id="flow0.3" x="103.24" y="-1.60" angle="90.00" type="car" speed="11.76" pos="103.24" lane="edge0_0" slope="0.00"/>
        <vehicle id="flow0.4" x="62.99" y="-1.60" angle="90.00" type="car" speed="9.28" pos="62.99" lane="edge0_0" slope="0.00"/>
        <vehicle id="flow0.5" x="27.46" y="-1.60" angle="90.00" type="car" speed="5.41" pos="27.46" lane="edge0_0" slope="0.00"/>
        <vehicle id="flow0.6" x="9.08" y="-1.60" angle="90.00" type="car" speed="2.17" pos="9.08" lane="edge0_0" slope="0.00"/>
    </timestep>
    <timestep time="32.00">
        <vehicle id="flow0.0" x="325.75" y="-1.60" angle="90.00" type="car" speed="13.54" pos="325.75" lane="edge0_0" slope="0.00"/>
        <vehicle id="flow0.1" x="252.81" y="-1.60" angle="90.00" type="car" speed="12.97" pos="252.81" lane="edge0_0" slope="0.00"/>
        <vehicle id="flow0.2" x="187.95" y="-1.60" angle="90.00" type="car" speed="13.46" pos="187.95" lane="edge0_0" slope="0.00"/>
        <vehicle id="flow0.3" x="115.81" y="-1.60" angle="90.00" type="car" speed="12.57" pos="115.81" lane="edge0_0" slope="0.00"/>
        <vehicle id="flow0.4" x="73.03" y="-1.60" angle="90.00" type="car" speed="10.04" pos="73.03" lane="edge0_0" slope="0.00"/>
        <vehicle id="flow0.5" x="33.85" y="-1.60" angle="90.00" type="car" speed="6.39" pos="33.85" lane="edge0_0" slope="0.00"/>
        <vehicle id="flow0.6" x="12.05" y="-1.60" angle="90.00" type="car" speed="2.97" pos="12.05" lane="edge0_0" slope="0.00"/>
    </timestep>
    <timestep time="33.00">
        <vehicle id="flow0.0" x="339.31" y="-1.60" angle="90.00" type="car" speed="13.56" pos="339.31" lane="edge0_0" slope="0.00"/>
        <vehicle id="flow0.1" x="265.36" y="-1.60" angle="90.00" type="car" speed="12.55" pos="265.36" lane="edge0_0" slope="0.00"/>
        <vehicle id="flow0.2" x="201.43" y="-1.60" angle="90.00" type="car" speed="13.48" pos="201.43" lane="edge0_0" slope="0.00"/>
        <vehicle id="flow0.3" x="129.30" y="-1.60" angle="90.00" type="car" speed="13.50" pos="129.30" lane="edge0_0" slope="0.00"/>
        <vehicle id="flow0.4" x="83.62" y="-1.60" angle="90.00" type="car" speed="10.59" pos="83.62" lane="edge0_0" slope="0.00"/>
        <vehicle id="flow0.5" x="41.07" y="-1.60" angle="90.00" type="car" speed="7.22" pos="41.07" lane="edge0_0" slope="0.00"/>
        <vehicle id="flow0.6" x="15.69" y="-1.60" angle="90.00" type="car" speed="3.64" pos="15.69" lane="edge0_0" slope="0.00"/>
        <vehicle id="flow0.7" x="5.10" y="-1.60" angle="90.00" type="car" speed="0.00" pos="5.10" lane="edge0_0" slope="0.00"/>
    </timestep>
    <timestep time="34.00">
        <vehicle id="flow0.0" x="353.00" y="-1.60" angle="90.00" type="car" speed="13.68" pos="353.00" lane="edge0_0" slope="0.00"/>
        <vehicle id="flow0.1" x="278.11" y="-1.60" angle="90.00" type="car" speed="12.75" pos="278.11" lane="edge0_0" slope="0.00"/>
        <vehicle id="flow0.2" x="215.19" y="-1.60" angle="90.00" type="car" speed="13.76" pos="215.19" lane="edge0_0" slope="0.00"/>
        <vehicle id="flow0.3" x="143.01" y="-1.60" angle="90.00" type="car" speed="13.71" pos="143.01" lane="edge0_0" slope="0.00"/>
        <vehicle id="flow0.4" x="94.87" y="-1.60" angle="90.00" type="car" speed="11.25" pos="94.87" lane="edge0_0" slope="0.00"/>
        <vehicle id="flow0.5" x="48.99" y="-1.60" angle="90.00" type="car" speed="7.92" pos="48.99" lane="edge0_0" slope="0.00"/>
        <vehicle id="flow0.6" x="20.04" y="-1.60" angle="90.00" type="car" speed="4.35" pos="20.04" lane="edge0_0" slope="0.00"/>
        <vehicle id="flow0.7" x="6.05" y="-1.60" angle="90.00" type="car" speed="0.95" pos="6.05" lane="edge0_0" slope="0.00"/>
    </timestep>
    <timestep time="35.00">
        <vehicle id="flow0.0" x="366.47" y="-1.60" angle="90.00" type="car" speed="13.47" pos="366.47" lane="edge0_0" slope="0.00"/>
        <vehicle id="flow0.1" x="290.83" y="-1.60" angle="90.00" type="car" speed="12.72" pos="290.83" lane="edge0_0" slope="0.00"/>
        <vehicle id="flow0.2" x="228.68" y="-1.60" angle="90.00" type="car" speed="13.49" pos="228.68" lane="edge0_0" slope="0.00"/>
        <vehicle id="flow0.3" x="156.44" y="-1.60" angle="90.00" type="car" speed="13.43" pos="156.44" lane="edge0_0" slope="0.00"/>
        <vehicle id="flow0.4" x="106.85" y="-1.60" angle="90.00" type="car" speed="11.98" pos="106.85" lane="edge0_0" slope="0.00"/>
        <vehicle id="flow0.5" x="57.90" y="-1.60" angle="90.00" type="car" speed="8.91" pos="57.90" lane="edge0_0" slope="0.00"/>
        <vehicle id="flow0.6" x="24.90" y="-1.60" angle="90.00" type="car" speed="4.86" pos="24.90" lane="edge0_0" slope="0.00"/>
        <vehicle id="flow0.7" x="7.55" y="-1.60" angle="90.00" type="car" speed="1.50" pos="7.55" lane="edge0_0" slope="0.00"/>
    </timestep>
    <timestep time="36.00">
        <vehicle id="flow0.0" x="380.13" y="-1.60" angle="90.00" type="car" speed="13.66" pos="380.13" lane="edge0_0" slope="0.00"/>
        <vehicle id="flow0.1" x="303.42" y="-1.60" angle="90.00" type="car" speed="12.59" pos="303.42" lane="edge0_0" slope="0.00"/>
        <vehicle id="flow0.2" x="242.49" y="-1.60" angle="90.00" type="car" speed="13.82" pos="242.49" lane="edge0_0" slope="0.00"/>
        <vehicle id="flow0.3" x="170.17" y="-1.60" angle="90.00" type="car" speed="13.73" pos="170.17" lane="edge0_0" slope="0.00"/>
        <vehicle id="flow0.4" x="119.42" y="-1.60" angle="90.00" type="car" speed="12.58" pos="119.42" lane="edge0_0" slope="0.00"/>
        <vehicle id="flow0.5" x="67.58" y="-1.60" angle="90.00" type="car" speed="9.68" pos="67.58" lane="edge0_0" slope="0.00"/>
        <vehicle id="flow0.6" x="30.60" y="-1.60" angle="90.00" type="car" speed="5.69" pos="30.60" lane="edge0_0" slope="0.00"/>
        <vehicle id="flow0.7" x="10.06" y="-1.60" angle="90.00" type="car" speed="2.50" pos="10.06" lane="edge0_0" slope="0.00"/>
    </timestep>
    <timestep time="37.00">
        <vehicle id="flow0.0" x="393.70" y="-1.60" angle="90.00" type="car" speed="13.57" pos="393.70" lane="edge0_0" slope="0.00"/>
        <vehicle id="flow0.1" x="316.00" y="-1.60" angle="90.00" type="car" speed="12.58" pos="316.00" lane="edge0_0" slope="0.00"/>
        <vehicle id="flow0.2" x="256.39" y="-1.60" angle="90.00" type="car" speed="13.89" pos="256.39" lane="edge0_0" slope="0.00"/>
        <vehicle id="flow0.3" x="183.83" y="-1.60" angle="90.00" type="car" speed="13.66" pos="183.83" lane="edge0_0" slope="0.00"/>
        <vehicle id="flow0.4" x="132.55" y="-1.60" angle="90.00" type="car" speed="13.12" pos="132.55" lane="edge0_0" slope="0.00"/>
        <vehicle id="flow0.5" x="78.05" y="-1.60" angle="90.00" type="car" speed="10.47" pos="78.05" lane="edge0_0" slope="0.00"/>
        <vehicle id="flow0.6" x="37.23" y="-1.60" angle="90.00" type="car" speed="6.64" pos="37.23" lane="edge0_0" slope="0.00"/>
        <vehicle id="flow0.7" x="13.14" y="-1.60" angle="90.00" type="car" speed="3.08" pos="13.14" lane="edge0_0" slope="0.00"/>
        <vehicle id="flow0.8" x="5.10" y="-1.60" angle="90.00" type="car" speed="0.00" pos="5.10" lane="edge0_0" slope="0.00"/>
    </timestep>
    <timestep time="38.00">
        <vehicle id="flow0.0" x="407.19" y="-1.60" angle="90.00" type="car" speed="13.49" pos="407.19" lane="edge0_0" slope="0.00"/>
        <vehicle id="flow0.1" x="328.85" y="-1.60" angle="90.00" type="car" speed="12.85" pos="328.85" lane="edge0_0" slope="0.00"/>
        <vehicle id="flow0.2" x="269.79" y="-1.60" angle="90.00" type="car" speed="13.40" pos="269.79" lane="edge0_0" slope="0.00"/>
        <vehicle id="flow0.3" x="197.48" y="-1.60" angle="90.00" type="car" speed="13.66" pos="197.48" lane="edge0_0" slope="0.00"/>
        <vehicle id="flow0.4" x="145.98" y="-1.60" angle="90.00" type="car" speed="13.43" pos="145.98" lane="edge0_0" slope="0.00"/>
        <vehicle id="flow0.5" x="89.13" y="-1.60" angle="90.00" type="car" speed="11.08" pos="89.13" lane="edge0_0" slope="0.00"/>
        <vehicle id="flow0.6" x="44.64" y="-1.60" angle="90.00" type="car" speed="7.40" pos="44.64" lane="edge0_0" slope="0.00"/>
        <vehicle id="flow0.7" x="16.79" y="-1.60" angle="90.00" type="car" speed="3.66" pos="16.79" lane="edge0_0" slope="0.00"/>
        <vehicle id="flow0.8" x="5.55" y="-1.60" angle="90.00" type="car" speed="0.45" pos="5.55" lane="edge0_0" slope="0.00"/>
    </timestep>
    <timestep time="39.00">
        <vehicle id="flow0.0" x="420.99" y="-1.60" angle="90.00" type="car" speed="13.80" pos="420.99" lane="edge0_0" slope="0.00"/>
        <vehicle id="flow0.1" x="341.82" y="-1.60" angle="90.00" type="car" speed="12.97" pos="341.82" lane="edge0_0" slope="0.00"/>
        <vehicle id="flow0.2" x="283.47" y="-1.60" angle="90.00" type="car" speed="13.68" pos="283.47" lane="edge0_0" slope="0.00"/>
        <vehicle id="flow0.3" x="211.22" y="-1.60" angle="90.00" type="car" speed="13.74" pos="211.22" lane="edge0_0" slope="0.00"/>
        <vehicle id="flow0.4" x="159.52" y="-1.60" angle="90.00" type="car" speed="13.54" pos="159.52" lane="edge0_0" slope="0.00"/>
        <vehicle id="flow0.5" x="100.45" y="-1.60" angle="90.00" type="car" speed="11.33" pos="100.45" lane="edge0_0" slope="0.00"/>
        <vehicle id="flow0.6" x="52.86" y="-1.60" angle="90.00" type="car" speed="8.22" pos="52.86" lane="edge0_0" slope="0.00"/>
        <vehicle id="flow0.7" x="21.05" y="-1.60" angle="90.00" type="car" speed="4.26" pos="21.05" lane="edge0_0" slope="0.00"/>
        <vehicle id="flow0.8" x="6.91" y="-1.60" angle="90.00" type="car" speed="1.37" pos="6.91" lane="edge0_0" slope="0.00"/>
    </timestep>
    <timestep time="40.00">
        <vehicle id="flow0.0" x="434.60" y="-1.60" angle="90.00" type="car" speed="13.61" pos="434.60" lane="edge0_0" slope="0.00"/>
        <vehicle id="flow0.1" x="354.79" y="-1.60" angle="90.00" type="car" speed="12.98" pos="354.79" lane="edge0_0" slope="0.00"/>
        <vehicle id="flow0.2" x="296.97" y="-1.60" angle="90.00" type="car" speed="13.51" pos="296.97" lane="edge0_0" slope="0.00"/>
        <vehicle id="flow0.3" x="225.06" y="-1.60" angle="90.00" type="car" speed="13.84" pos="225.06" lane="edge0_0" slope="0.00"/>
        <vehicle id="flow0.4" x="173.37" y="-1.60" angle="90.00" type="car" speed="13.85" pos="173.37" lane="edge0_0" slope="0.00"/>
        <vehicle id="flow0.5" x="111.89" y="-1.60" angle="90.00" type="car" speed="11.44" pos="111.89" lane="edge0_0" slope="0.00"/>
        <vehicle id="flow0.6" x="61.97" y="-1.60" angle="90.00" type="car" speed="9.11" pos="61.97" lane="edge0_0" slope="0.00"/>
        <vehicle id="flow0.7" x="26.21" y="-1.60" angle="90.00" type="car" speed="5.16" pos="26.21" lane="edge0_0" slope="0.00"/>
        <vehicle id="flow0.8" x="8.82" y="-1.60" angle="90.00" type="car" speed="1.91" pos="8.82" lane="edge0_0" slope="0.00"/>
    </timestep>
    <timestep time="41.00">
        <vehicle id="flow0.0" x="448.34" y="-1.60" angle="90.00" type="car" speed="13.74" pos="448.34" lane="edge0_0" slope="0.00"/>
        <vehicle id="flow0.1" x="367.71" y="-1.60" angle="90.00" type="car" speed="12.92" pos="367.71" lane="edge0_0" slope="0.00"/>
        <vehicle id="flow0.2" x="310.45" y="-1.60" angle="90.00" type="car" speed="13.47" pos="310.45" lane="edge0_0" slope="0.00"/>
        <vehicle id="flow0.3" x="238.73" y="-1.60" angle="90.00" type="car" speed="13.67" pos="238.73" lane="edge0_0" slope="0.00"/>
        <vehicle id="flow0.4" x="187.17" y="-1.60" angle="90.00" type="car" speed="13.80" pos="187.17" lane="edge0_0" slope="0.00"/>
        <vehicle id="flow0.5" x="123.32" y="-1.60" angle="90.00" type="car" speed="11.43" pos="123.32" lane="edge0_0" slope="0.00"/>
        <vehicle id="flow0.6" x="71.61" y="-1.60" angle="90.00" type="car" speed="9.64" pos="71.61" lane="edge0_0" slope="0.00"/>
        <vehicle id="flow0.7" x="32.26" y="-1.60" angle="90.00" type="car" speed="6.05" pos="32.26" lane="edge0_0" slope="0.00"/>
        <vehicle id="flow0.8" x="11.27" y="-1.60" angle="90.00" type="car" speed="2.45" pos="11.27" lane="edge0_0" slope="0.00"/>
    </timestep>
    <timestep time="42.00">
        <vehicle id="flow0.0" x="461.95" y="-1.60" angle="90.00" type="car" speed="13.62" pos="461.95" lane="edge0_0" slope="0.00"/>